<?xml version="1.0" encoding="UTF-8"?>

<!-- generated on 2021-09-20 12:14:28 by Eclipse SUMO dfrouter Version 1.10.0
<configuration xmlns:xsi="http://www.w3.org/2001/XMLSchema-instance" xsi:noNamespaceSchemaLocation="http://sumo.dlr.de/xsd/dfrouterConfiguration.xsd">

    <input>
        <net-file value="../Netzmodell2.net.xml"/>
        <detector-files value="detectors.xml"/>
        <measure-files value="fahrzeuganzahl"/>
    </input>

    <output>
        <routes-output value="routes.rou.xml"/>
        <emitters-output value="vehicles.xml"/>
    </output>

    <processing>
        <vclass value="passenger"/>
    </processing>

</configuration>
-->

<routes xmlns:xsi="http://www.w3.org/2001/XMLSchema-instance" xsi:noNamespaceSchemaLocation="http://sumo.dlr.de/xsd/routes_file.xsd">

    <route id="-814303496#0_to_111677671#1" edges="-814303496#0 -876343451#3 -876343451#2 -876343451#1 -876343451#0 -803012921#4 -803012921#3 -803012921#1 -803012921#0 -876343449#4 -876343449#3 -876343449#2 -876343449#1 -876343449#0 -4950193 -111677669#5 -111677669#4 -111677669#3 -111677669#2 -111677669#1 -111677669#0 111677671#0 111677671#1"/>
    <route id="-814303496#0_to_814303496#0" edges="-814303496#0 -876343451#3 -876343451#2 -876343451#1 -876343451#0 7924764#0 7924764#1 -876057371 -876343452#7 -876343452#6 -876343452#5 -876343452#4 -7924766 876343449#4 803012921#0 803012921#1 803012921#2 803012921#4 876343451#0 876343451#1 876343451#2 876343451#3 814303496#0"/>
    <route id="-814303496#0_to_-26943536#1" edges="-814303496#0 -876343451#3 -876343451#2 -876343451#1 -876343451#0 -803012921#4 -803012921#3 -803012921#1 -803012921#0 -876343449#4 -876343449#3 -876343449#2 -876343449#1 -876343449#0 -4950193 -111677669#5 -111677669#4 -111677669#3 -111677669#2 -111677669#1 -111677669#0 -26943536#1"/>
    <route id="-814303496#0_to_240042196#0" edges="-814303496#0 -876343451#3 -876343451#2 -876343451#1 -876343451#0 -803012921#4 -803012921#3 -803012921#1 -803012921#0 -876343449#4 -876343449#3 -876343449#2 -876343449#1 -876343449#0 -4950193 -111677669#5 -111677669#4 -111677669#3 -111677669#2 -111677669#1 -111677669#0 -111677668#4 -111677668#3 -111677668#0 -835445203 835443463#0 835443463#2 4929432#0 4929432#1 4929432#2 23707342 240042196#0"/>
    <route id="-814303496#0_to_gneE4" edges="-814303496#0 -876343451#3 -876343451#2 -876343451#1 -876343451#0 -803012921#4 -803012921#3 -803012921#1 -803012921#0 -876343449#4 -876343449#3 -876343449#2 -876343449#1 -876343449#0 -4950193 -111677669#5 -111677669#4 -111677669#3 -111677669#2 -111677669#1 -111677669#0 -111677668#4 -111677668#3 -111677668#0 7365262 74277990 gneE2 -gneE3 gneE4"/>
    <route id="-814303496#0_to_5197061#3" edges="-814303496#0 -876343451#3 -876343451#2 -876343451#1 -876343451#0 -803012921#4 -803012921#3 -803012921#1 -803012921#0 -876343449#4 -876343449#3 -876343449#2 -876343449#1 -876343449#0 -4950193 -111677669#5 -111677669#4 -111677669#3 -111677669#2 -111677669#1 -111677669#0 -111677668#4 -111677668#3 -111677668#0 -835445203 -24337240#7 -24337240#6 -5197062#4 -5197062#3 -5197062#2 -5197062#1 -5197062#0 5197061#3"/>
    <route id="-814303496#0_to_4911107#5" edges="-814303496#0 -876343451#3 -876343451#2 -876343451#1 -876343451#0 -803012921#4 -803012921#3 -803012921#1 -803012921#0 -876343449#4 -876343449#3 -876343449#2 -876343449#1 -876343449#0 -4950193 -111677669#5 -111677669#4 -111677669#3 -111677669#2 -111677669#1 -111677669#0 -111677668#4 -111677668#3 -111677668#0 -835445203 -24337240#7 -24337240#6 -24337240#4 -24337240#3 -24337240#2 -24337240#1 -24337240#0 -120682114#3 -120682114#2 -120682114#1 -120682116#9 4911107#0 4911107#1 4911107#2 4911107#3 4911107#4 4911107#5"/>
    <route id="-814303496#0_to_8050332" edges="-814303496#0 -876343451#3 -876343451#2 -876343451#1 -876343451#0 -803012921#4 -803012921#3 -803012921#1 -803012921#0 -876343449#4 -876343449#3 -876343449#2 -876343449#1 -876343449#0 -4950193 -111677669#5 -111677669#4 -111677669#3 -111677669#2 -111677669#1 -111677669#0 -111677668#4 -111677668#3 -111677668#0 -835445203 -24337240#7 -24337240#6 -5197062#4 -5197062#3 -5197062#2 -5197062#1 -5197062#0 -5197061#2 -5197064#3 8050332"/>
    <route id="-814303496#0_to_4877791" edges="-814303496#0 -876343451#3 -876343451#2 -876343451#1 -876343451#0 -803012921#4 -803012921#3 -803012921#1 -803012921#0 -876343449#4 -876343449#3 -876343449#2 -876343449#1 -876343449#0 -4950193 -111677669#5 -111677669#4 -111677669#3 -111677669#2 -111677669#1 -111677669#0 -111677668#4 -111677668#3 -111677668#0 -835445203 -24337240#7 -24337240#6 -24337240#4 -24337240#3 -24337240#2 -24337240#1 -24337240#0 -120682114#3 -120682114#2 -120682114#1 -111681903#3 -111681903#2 -111681903#1 -111681903#0 -40009020#7 -40009020#6 -40009020#5 -40009020#4 -40009020#3 -40009020#0 4877791"/>
    <route id="-814303496#0_to_880137010" edges="-814303496#0 -876343451#3 -876343451#2 -876343451#1 -876343451#0 -803012921#4 -803012921#3 -803012921#1 -803012921#0 -876343449#4 -876343449#3 -876343449#2 -876343449#1 -876343449#0 -4950193 -111677669#5 -111677669#4 -111677669#3 -111677669#2 -111677669#1 -111677669#0 -111677668#4 -111677668#3 -111677668#0 -835445203 -24337240#7 -24337240#6 -24337240#4 -24337240#3 -24337240#2 -24337240#1 -24337240#0 -120682114#3 -120682114#2 -120682114#1 -111681903#3 -111681903#2 -111681903#1 -111681903#0 -782714971#4 -782714971#3 -782714971#2 -782714971#1 -782714971#0 -783907721#2 -783907721#1 -783907721#0 -880137009#1 -880137009#0 747448014 880137010"/>
    <route id="-814303496#0_to_-219796100#0" edges="-814303496#0 -876343451#3 -876343451#2 -876343451#1 -876343451#0 -803012921#4 -803012921#3 -803012921#1 -803012921#0 -876343449#4 -876343449#3 -876343449#2 -876343449#1 -876343449#0 -4950193 -111677669#5 -111677669#4 -111677669#3 -111677669#2 -111677669#1 -111677669#0 -111677668#4 -111677668#3 -111677668#0 -835445203 -24337240#7 -24337240#6 -24337240#4 -24337240#3 -24337240#2 -24337240#1 -24337240#0 -120682114#3 -120682114#2 -120682114#1 -111681903#3 -111681903#2 -111681903#1 -111681903#0 -782714971#4 -782714971#3 37627664#0 37627664#1 37627664#2 -219796100#2 -219796100#1 -219796100#0"/>
    <route id="-814303496#0_to_783907721#2" edges="-814303496#0 -876343451#3 -876343451#2 -876343451#1 -876343451#0 -803012921#4 -803012921#3 -803012921#1 -803012921#0 -876343449#4 -876343449#3 -876343449#2 -876343449#1 -876343449#0 -4950193 -111677669#5 -111677669#4 -111677669#3 -111677669#2 -111677669#1 -111677669#0 -111677668#4 -111677668#3 -111677668#0 -835445203 -24337240#7 -24337240#6 -24337240#4 -24337240#3 -24337240#2 -24337240#1 -24337240#0 -120682114#3 -120682114#2 -120682114#1 -111681903#3 -111681903#2 -111681903#1 -111681903#0 -782714971#4 -782714971#3 -782714971#2 -782714971#1 -782714971#0 -783907721#2 -783907721#1 -783907721#0 -880137009#1 -880137009#0 747448014 782714970 58621262#0 58621262#1 880137009#0 880137009#1 783907721#0 783907721#1 783907721#2"/>
    <route id="-814303496#0_to_37551339#0" edges="-814303496#0 -876343451#3 -876343451#2 -876343451#1 -876343451#0 -803012921#4 -803012921#3 -803012921#1 -803012921#0 -876343449#4 -876343449#3 -876343449#2 -876343449#1 -876343449#0 -4950193 -111677669#5 -111677669#4 -111677669#3 -111677669#2 -111677669#1 -111677669#0 -111677668#4 -111677668#3 -111677668#0 -835445203 -24337240#7 -24337240#6 -24337240#4 -24337240#3 -24337240#2 -24337240#1 -24337240#0 -120682114#3 -120682114#2 -120682114#1 -111681903#3 -111681903#2 -111681903#1 -111681903#0 -782714971#4 -782714971#3 -782714971#2 -782714971#1 -782714971#0 -783907721#2 -783907721#1 -783907721#0 -880137009#1 -880137009#0 747448014 782714970 -311298665 27267512#0 27267512#1 -37551339#2 37551339#0"/>
    <route id="-814303496#0_to_-37551339#1" edges="-814303496#0 -876343451#3 -876343451#2 -876343451#1 -876343451#0 -803012921#4 -803012921#3 -803012921#1 -803012921#0 -876343449#4 -876343449#3 -876343449#2 -876343449#1 -876343449#0 -4950193 -111677669#5 -111677669#4 -111677669#3 -111677669#2 -111677669#1 -111677669#0 -111677668#4 -111677668#3 -111677668#0 -835445203 -24337240#7 -24337240#6 -24337240#4 -24337240#3 -24337240#2 -24337240#1 -24337240#0 -120682114#3 -120682114#2 -120682114#1 -111681903#3 -111681903#2 -111681903#1 -111681903#0 -782714971#4 -782714971#3 -782714971#2 -782714971#1 -782714971#0 -783907721#2 -783907721#1 -783907721#0 -880137009#1 -880137009#0 747448014 782714970 -311298665 27267512#0 27267512#1 -37551339#2 -37551339#1"/>
    <route id="-814303496#0_to_-4935286#1" edges="-814303496#0 -876343451#3 -876343451#2 -876343451#1 -876343451#0 -803012921#4 -803012921#3 -803012921#1 -803012921#0 -876343449#4 -876343449#3 -876343449#2 -876343449#1 -876343449#0 -4950193 -111677669#5 -111677669#4 -111677669#3 -111677669#2 -111677669#1 -111677669#0 -111677668#4 -111677668#3 -111677668#0 -835445203 -24337240#7 -24337240#6 -24337240#4 -24337240#3 -24337240#2 -24337240#1 -24337240#0 -120682114#3 -120682114#2 -120682114#1 -111681903#3 -111681903#2 -111681903#1 -111681903#0 -782714971#4 -782714971#3 -782714971#2 -782714971#1 -782714971#0 -783907721#2 -783907721#1 -783907721#0 -880137009#1 -880137009#0 747448014 782714970 -311298665 -535519490#1 -535519490#0 -4895001#0 -4935286#3 -4935286#2 -4935286#1"/>
    <route id="-814303496#0_to_-28468732#0" edges="-814303496#0 -876343451#3 -876343451#2 -876343451#1 -876343451#0 -803012921#4 -803012921#3 -803012921#1 -803012921#0 -876343449#4 -876343449#3 -876343449#2 -876343449#1 -876343449#0 -4950193 -111677669#5 -111677669#4 -111677669#3 -111677669#2 -111677669#1 -111677669#0 -111677668#4 -111677668#3 -111677668#0 -835445203 -24337240#7 -24337240#6 -24337240#4 -24337240#3 -24337240#2 -24337240#1 -24337240#0 -120682114#3 -120682114#2 -120682114#1 -111681903#3 -111681903#2 -111681903#1 -111681903#0 -782714971#4 -782714971#3 -782714971#2 4970256#0 4970256#1 4970256#3 4970256#4 -28468732#1 -28468732#0"/>
    <route id="-814303496#0_to_5236308#1" edges="-814303496#0 -876343451#3 -876343451#2 -876343451#1 -876343451#0 -803012921#4 -803012921#3 -803012921#1 -803012921#0 -876343449#4 -876343449#3 -876343449#2 -876343449#1 -876343449#0 -4950193 -111677669#5 -111677669#4 -111677669#3 -111677669#2 -111677669#1 -111677669#0 -111677668#4 -111677668#3 -111677668#0 -835445203 -24337240#7 -24337240#6 -24337240#4 -24337240#3 -24337240#2 -24337240#1 -24337240#0 -120682114#3 -120682114#2 -120682114#1 -111681903#3 -111681903#2 -111681903#1 -111681903#0 -782714971#4 -782714971#3 -782714971#2 -782714971#1 -782714971#0 -783907721#2 -783907721#1 -783907721#0 -880137009#1 -880137009#0 747448014 782714970 -311298665 -535519490#1 -535519490#0 -4895001#0 -4935286#3 -4935286#2 5236308#1"/>
    <route id="-814303496#0_to_4924947#3" edges="-814303496#0 -876343451#3 -876343451#2 -876343451#1 -876343451#0 -803012921#4 -803012921#3 -803012921#1 -803012921#0 -876343449#4 -876343449#3 -876343449#2 -876343449#1 -876343449#0 -4950193 -111677669#5 -111677669#4 -111677669#3 -111677669#2 -111677669#1 -111677669#0 -111677668#4 -111677668#3 -111677668#0 -835445203 -24337240#7 -24337240#6 -24337240#4 -24337240#3 -24337240#2 -24337240#1 -24337240#0 -120682114#3 -120682114#2 -120682114#1 -120682116#9 -120682116#7 -120682116#6 -120682116#5 -120682116#4 -120682116#3 -120682116#2 -120682116#1 -120682116#0 -4877788#6 -4877788#5 -4877788#4 -4877788#2 -4877788#1 4924947#0 4924947#1 4924947#2 4924947#3"/>
    <route id="-814303496#0_to_-5029409#0" edges="-814303496#0 -876343451#3 -876343451#2 -876343451#1 -876343451#0 -803012921#4 -803012921#3 -803012921#1 -803012921#0 -876343449#4 -876343449#3 -876343449#2 -876343449#1 -876343449#0 -4950193 -111677669#5 -111677669#4 -111677669#3 -111677669#2 -111677669#1 -111677669#0 -111677668#4 -111677668#3 -111677668#0 -835445203 -24337240#7 -24337240#6 -24337240#4 -24337240#3 -24337240#2 -24337240#1 -24337240#0 -120682114#3 -120682114#2 -120682114#1 -120682116#9 -120682116#7 -120682116#6 -120682116#5 -120682116#4 -120682116#3 -120682116#2 -120682116#1 -120682116#0 -4877788#6 -4877788#5 -4877788#4 -4877788#2 -4877788#1 -4877788#0 -311298685 7924755 -5029409#1 -5029409#0"/>
    <route id="-814303496#0_to_-5236305#1" edges="-814303496#0 -876343451#3 -876343451#2 -876343451#1 -876343451#0 -803012921#4 -803012921#3 -803012921#1 -803012921#0 -876343449#4 -876343449#3 -876343449#2 -876343449#1 -876343449#0 -4950193 -111677669#5 -111677669#4 -111677669#3 -111677669#2 -111677669#1 -111677669#0 -111677668#4 -111677668#3 -111677668#0 -835445203 -24337240#7 -24337240#6 -24337240#4 -24337240#3 -24337240#2 -24337240#1 -24337240#0 -120682114#3 -120682114#2 -120682114#1 -111681903#3 -111681903#2 -111681903#1 -111681903#0 -782714971#4 -782714971#3 -782714971#2 -782714971#1 -782714971#0 -783907721#2 -783907721#1 -783907721#0 -880137009#1 -880137009#0 747448014 782714970 -311298665 -535519490#1 -535519490#0 -4895001#0 -4935286#3 -5236305#2 -5236305#1"/>
    <route id="-814303496#0_to_-4970254#2" edges="-814303496#0 -876343451#3 -876343451#2 -876343451#1 -876343451#0 -803012921#4 -803012921#3 -803012921#1 -803012921#0 -876343449#4 -876343449#3 -876343449#2 -876343449#1 -876343449#0 -4950193 -111677669#5 -111677669#4 -111677669#3 -111677669#2 -111677669#1 -111677669#0 -111677668#4 -111677668#3 -111677668#0 -835445203 -24337240#7 -24337240#6 -24337240#4 -24337240#3 -24337240#2 -24337240#1 -24337240#0 -120682114#3 -120682114#2 -120682114#1 -120682116#9 -120682116#7 -120682116#6 -120682116#5 -120682116#4 -120682116#3 -120682116#2 -120682116#1 -120682116#0 -4877788#6 -4877788#5 -4877788#4 -4877788#2 -4877788#1 -4877788#0 -311298685 -4970255#2 -4970255#1 -4970255#0 -4970254#5 -4970254#4 -4970254#3 -4970254#2"/>
    <route id="-814303496#0_to_-5029408" edges="-814303496#0 -876343451#3 -876343451#2 -876343451#1 -876343451#0 -803012921#4 -803012921#3 -803012921#1 -803012921#0 -876343449#4 -876343449#3 -876343449#2 -876343449#1 -876343449#0 -4950193 -111677669#5 -111677669#4 -111677669#3 -111677669#2 -111677669#1 -111677669#0 -111677668#4 -111677668#3 -111677668#0 -835445203 -24337240#7 -24337240#6 -24337240#4 -24337240#3 -24337240#2 -24337240#1 -24337240#0 -120682114#3 -120682114#2 -120682114#1 -120682116#9 -120682116#7 -120682116#6 -120682116#5 -120682116#4 -120682116#3 -120682116#2 -120682116#1 -120682116#0 -4877788#6 -4877788#5 -4877788#4 -4877788#2 -4877788#1 -4877788#0 -311298685 7924755 -5029409#1 -5029408"/>
    <route id="-814303496#0_to_-26947645#2" edges="-814303496#0 -876343451#3 -876343451#2 -876343451#1 -876343451#0 -803012921#4 -803012921#3 -803012921#1 -803012921#0 -876343449#4 -876343449#3 -876343449#2 -876343449#1 -876343449#0 -4950193 -111677669#5 -111677669#4 -111677669#3 -111677669#2 -111677669#1 -111677669#0 -111677668#4 -111677668#3 -111677668#0 -835445203 -24337240#7 -24337240#6 -24337240#4 -24337240#3 -24337240#2 -24337240#1 -24337240#0 -120682114#3 -120682114#2 -120682114#1 -111681903#3 -111681903#2 -111681903#1 -111681903#0 -782714971#4 -782714971#3 -782714971#2 -782714971#1 -5197053#3 -5197053#2 -5197053#1 -5197053#0 37627664#5 37627664#6 5055277#4 5055277#5 5055277#6 124266855#0 124266855#1 124266855#2 124266855#5 -26947645#3 -26947645#2"/>
    <route id="-814303496#0_to_124266855#7" edges="-814303496#0 -876343451#3 -876343451#2 -876343451#1 -876343451#0 -803012921#4 -803012921#3 -803012921#1 -803012921#0 -876343449#4 -876343449#3 -876343449#2 -876343449#1 -876343449#0 -4950193 -111677669#5 -111677669#4 -111677669#3 -111677669#2 -111677669#1 -111677669#0 -111677668#4 -111677668#3 -111677668#0 -835445203 -24337240#7 -24337240#6 -24337240#4 -24337240#3 -24337240#2 -24337240#1 -24337240#0 -120682114#3 -120682114#2 -120682114#1 -111681903#3 -111681903#2 -111681903#1 -111681903#0 -782714971#4 -782714971#3 -782714971#2 -782714971#1 -5197053#3 -5197053#2 -5197053#1 -5197053#0 37627664#5 37627664#6 5055277#4 5055277#5 5055277#6 124266855#0 124266855#1 124266855#2 124266855#5 124266855#6 124266855#7"/>
    <route id="-814303496#0_to_-5236308#1" edges="-814303496#0 -876343451#3 -876343451#2 -876343451#1 -876343451#0 -803012921#4 -803012921#3 -803012921#1 -803012921#0 -876343449#4 -876343449#3 -876343449#2 -876343449#1 -876343449#0 -4950193 -111677669#5 -111677669#4 -111677669#3 -111677669#2 -111677669#1 -111677669#0 -111677668#4 -111677668#3 -111677668#0 -835445203 -24337240#7 -24337240#6 -24337240#4 -24337240#3 -24337240#2 -24337240#1 -24337240#0 -120682114#3 -120682114#2 -120682114#1 -111681903#3 -111681903#2 -111681903#1 -111681903#0 -782714971#4 -782714971#3 -782714971#2 -782714971#1 -782714971#0 -783907721#2 -783907721#1 -783907721#0 -880137009#1 -880137009#0 747448014 782714970 -311298665 27267512#0 27267512#1 27267512#2 27267512#3 -37551363 -5236308#1"/>
    <route id="-814303496#0_to_-4970251#0" edges="-814303496#0 -876343451#3 -876343451#2 -876343451#1 -876343451#0 -803012921#4 -803012921#3 -803012921#1 -803012921#0 -876343449#4 -876343449#3 -876343449#2 -876343449#1 -876343449#0 -4950193 -111677669#5 -111677669#4 -111677669#3 -111677669#2 -111677669#1 -111677669#0 -111677668#4 -111677668#3 -111677668#0 -835445203 -24337240#7 -24337240#6 -24337240#4 -24337240#3 -24337240#2 -24337240#1 -24337240#0 -120682114#3 -120682114#2 -120682114#1 -111681903#3 -111681903#2 -111681903#1 -111681903#0 -782714971#4 -782714971#3 -782714971#2 -782714971#1 -782714971#0 -783907721#2 -783907721#1 -783907721#0 -880137009#1 -880137009#0 747448014 782714970 -311298665 -535519490#1 -535519490#0 880140407 25970859#0 -4970251#1 -4970251#0"/>
    <route id="-814303496#0_to_4970253#0" edges="-814303496#0 -876343451#3 -876343451#2 -876343451#1 -876343451#0 -803012921#4 -803012921#3 -803012921#1 -803012921#0 -876343449#4 -876343449#3 -876343449#2 -876343449#1 -876343449#0 -4950193 -111677669#5 -111677669#4 -111677669#3 -111677669#2 -111677669#1 -111677669#0 -111677668#4 -111677668#3 -111677668#0 -835445203 -24337240#7 -24337240#6 -24337240#4 -24337240#3 -24337240#2 -24337240#1 -24337240#0 -120682114#3 -120682114#2 -120682114#1 -111681903#3 -111681903#2 -111681903#1 -111681903#0 -782714971#4 -782714971#3 -782714971#2 -782714971#1 -782714971#0 -783907721#2 -783907721#1 -783907721#0 -880137009#1 -880137009#0 747448014 782714970 -311298665 -535519490#1 -535519490#0 880140407 25970859#0 -4970251#1 4970253#0"/>
    <route id="-814303496#0_to_747448015" edges="-814303496#0 -876343451#3 -876343451#2 -876343451#1 -876343451#0 -803012921#4 -803012921#3 -803012921#1 -803012921#0 -876343449#4 -876343449#3 -876343449#2 -876343449#1 -876343449#0 -4950193 -111677669#5 -111677669#4 -111677669#3 -111677669#2 -111677669#1 -111677669#0 -111677668#4 -111677668#3 -111677668#0 -835445203 -24337240#7 -24337240#6 -24337240#4 -24337240#3 -24337240#2 -24337240#1 -24337240#0 -120682114#3 -120682114#2 -120682114#1 -120682116#9 -120682116#7 -120682116#6 -120682116#5 -120682116#4 -120682116#3 -120682116#2 -120682116#1 -120682116#0 -4877788#6 -4877788#5 -4877788#4 -4877788#2 -4877788#1 -4877788#0 311298662#0 311298662#1 835443464 311298658 311298682#0 311298682#1 27149242 747448015"/>
    <route id="-814303496#0_to_311298685" edges="-814303496#0 -876343451#3 -876343451#2 -876343451#1 -876343451#0 -803012921#4 -803012921#3 -803012921#1 -803012921#0 -876343449#4 -876343449#3 -876343449#2 -876343449#1 -876343449#0 -4950193 -111677669#5 -111677669#4 -111677669#3 -111677669#2 -111677669#1 -111677669#0 -111677668#4 -111677668#3 -111677668#0 -835445203 -24337240#7 -24337240#6 -24337240#4 -24337240#3 -24337240#2 -24337240#1 -24337240#0 -120682114#3 -120682114#2 -120682114#1 -120682116#9 -120682116#7 -120682116#6 -120682116#5 -120682116#4 -120682116#3 -120682116#2 -120682116#1 -120682116#0 -4877788#6 -4877788#5 -4877788#4 -4877788#2 -4877788#1 -4877788#0 -782714966#1 -782714966#0 -4992725 4970254#5 4970255#0 4970255#1 4970255#2 311298685"/>
    <route id="-814303496#0_to_274763814#1" edges="-814303496#0 -876343451#3 -876343451#2 -876343451#1 -876343451#0 -803012921#4 -803012921#3 -803012921#1 -803012921#0 -876343449#4 -876343449#3 -876343449#2 -876343449#1 -876343449#0 -4950193 -111677669#5 -111677669#4 -111677669#3 -111677669#2 -111677669#1 -111677669#0 -111677668#4 -111677668#3 -111677668#0 -835445203 -24337240#7 -24337240#6 -24337240#4 -24337240#3 -24337240#2 -24337240#1 -24337240#0 -120682114#3 -120682114#2 -120682114#1 -120682116#9 -120682116#7 -120682116#6 -120682116#5 -120682116#4 -120682116#3 -120682116#2 -120682116#1 -120682116#0 -4877788#6 -4877788#5 -4877788#4 -4877788#2 -4877788#1 -4877788#0 311298662#0 311298662#1 835443464 -274763815#1 -274763815#0 274763814#0 274763814#1"/>
    <route id="-814303496#0_to_-27149243" edges="-814303496#0 -876343451#3 -876343451#2 -876343451#1 -876343451#0 -803012921#4 -803012921#3 -803012921#1 -803012921#0 -876343449#4 -876343449#3 -876343449#2 -876343449#1 -876343449#0 -4950193 -111677669#5 -111677669#4 -111677669#3 -111677669#2 -111677669#1 -111677669#0 -111677668#4 -111677668#3 -111677668#0 -835445203 -24337240#7 -24337240#6 -24337240#4 -24337240#3 -24337240#2 -24337240#1 -24337240#0 -120682114#3 -120682114#2 -120682114#1 -120682116#9 -120682116#7 -120682116#6 -120682116#5 -120682116#4 -120682116#3 -120682116#2 -120682116#1 -120682116#0 -4877788#6 -4877788#5 -4877788#4 -4877788#2 -4877788#1 -4877788#0 311298662#0 311298662#1 835443464 311298658 311298682#0 311298682#1 27149242 -27149243"/>
    <route id="-814303496#0_to_4950115#2" edges="-814303496#0 -876343451#3 -876343451#2 -876343451#1 -876343451#0 -803012921#4 -803012921#3 -803012921#1 -803012921#0 -876343449#4 -876343449#3 -876343449#2 -876343449#1 -876343449#0 -4950193 -111677669#5 -111677669#4 -111677669#3 -111677669#2 -111677669#1 -111677669#0 -111677668#4 -111677668#3 -111677668#0 -835445203 -24337240#7 -24337240#6 -24337240#4 -24337240#3 -24337240#2 -24337240#1 -24337240#0 -120682114#3 -120682114#2 -120682114#1 -120682116#9 -120682116#7 -120682116#6 -120682116#5 -120682116#4 -120682116#3 -120682116#2 -120682116#1 -120682116#0 -4877788#6 -4877788#5 -4877788#4 -4877788#2 -4877788#1 -4877788#0 311298662#0 311298662#1 835443464 -274763815#1 -274763815#0 -274763813#5 -274763813#4 -274763813#3 -274763813#2 -274763813#1 -274763813#0 4950115#0 4950115#1 4950115#2"/>
    <route id="-814303496#0_to_23359215#2" edges="-814303496#0 -876343451#3 -876343451#2 -876343451#1 -876343451#0 -803012921#4 -803012921#3 -803012921#1 -803012921#0 -876343449#4 -876343449#3 -876343449#2 -876343449#1 -876343449#0 -4950193 -111677669#5 -111677669#4 -111677669#3 -111677669#2 -111677669#1 -111677669#0 -111677668#4 -111677668#3 -111677668#0 -835445203 -24337240#7 -24337240#6 -24337240#4 -24337240#3 -24337240#2 -24337240#1 -24337240#0 -120682114#3 -120682114#2 -120682114#1 -120682116#9 -120682116#7 -120682116#6 -120682116#5 -120682116#4 -120682116#3 -120682116#2 -120682116#1 -120682116#0 -4877788#6 -4877788#5 -4877788#4 -4877788#2 -4877788#1 -4877788#0 311298662#0 311298662#1 835443464 -274763815#1 -274763815#0 -274763813#5 -274763813#4 -274763813#3 -274763813#2 -274763813#1 -274763813#0 4950115#0 23359215#0 23359215#1 23359215#2"/>

    <route id="4935286#0_to_880137010" edges="4935286#0 4935286#1 4935286#2 4935286#3 131942152 535519490#0 535519490#1 311298665 58621262#0 58621262#1 747448014 880137010"/>
    <route id="4935286#0_to_-5236305#0" edges="4935286#0 4935286#1 4935286#2 -5236305#2 -5236305#1 -5236305#0"/>
    <route id="4935286#0_to_-8162045" edges="4935286#0 4935286#1 4935286#2 -5236305#2 -5236305#1 -8162045"/>
    <route id="4935286#0_to_-5026771" edges="4935286#0 4935286#1 4935286#2 4935286#3 -5026771"/>
    <route id="4935286#0_to_37551339#0" edges="4935286#0 4935286#1 4935286#2 4935286#3 131942152 535519490#0 535519490#1 27267512#0 27267512#1 -37551339#2 37551339#0"/>
    <route id="4935286#0_to_-37551339#1" edges="4935286#0 4935286#1 4935286#2 4935286#3 131942152 535519490#0 535519490#1 27267512#0 27267512#1 -37551339#2 -37551339#1"/>
    <route id="4935286#0_to_-4935286#0" edges="4935286#0 4935286#1 4935286#2 4935286#3 131942152 535519490#0 535519490#1 311298665 58621262#0 58621262#1 747448014 782714970 -311298665 -535519490#1 -535519490#0 -4895001#0 -4935286#3 -4935286#2 -4935286#1 -4935286#0"/>
    <route id="4935286#0_to_-5029409#0" edges="4935286#0 4935286#1 4935286#2 4935286#3 131942152 880140407 25970859#0 25970859#1 502325084#0 502325084#1 502325084#3 782714966#0 782714966#1 -311298685 7924755 -5029409#1 -5029409#0"/>
    <route id="4935286#0_to_4924947#3" edges="4935286#0 4935286#1 4935286#2 4935286#3 131942152 880140407 25970859#0 25970859#1 502325084#0 502325084#1 502325084#3 782714966#0 782714966#1 4877788#0 4924947#0 4924947#1 4924947#2 4924947#3"/>
    <route id="4935286#0_to_-219796100#0" edges="4935286#0 4935286#1 4935286#2 4935286#3 131942152 535519490#0 535519490#1 311298665 58621262#0 58621262#1 880137009#0 880137009#1 783907721#0 783907721#1 783907721#2 782714971#0 782714971#1 782714971#2 37627664#0 37627664#1 37627664#2 -219796100#2 -219796100#1 -219796100#0"/>
    <route id="4935286#0_to_4911107#5" edges="4935286#0 4935286#1 4935286#2 4935286#3 131942152 535519490#0 535519490#1 311298665 58621262#0 58621262#1 880137009#0 880137009#1 783907721#0 783907721#1 783907721#2 782714971#0 782714971#1 782714971#2 782714971#3 782714971#4 111681903#0 111681903#1 111681903#2 111681903#3 -120682116#9 4911107#0 4911107#1 4911107#2 4911107#3 4911107#4 4911107#5"/>
    <route id="4935286#0_to_-4877786#2" edges="4935286#0 4935286#1 4935286#2 4935286#3 131942152 535519490#0 535519490#1 311298665 58621262#0 58621262#1 880137009#0 880137009#1 783907721#0 783907721#1 783907721#2 782714971#0 782714971#1 782714971#2 782714971#3 782714971#4 111681903#0 111681903#1 111681903#2 111681903#3 -120682116#9 -120682116#7 -120682116#6 -120682116#5 -120682116#4 -4877786#4 -4877786#3 -4877786#2"/>
    <route id="4935286#0_to_4877791" edges="4935286#0 4935286#1 4935286#2 4935286#3 131942152 535519490#0 535519490#1 311298665 58621262#0 58621262#1 880137009#0 880137009#1 783907721#0 783907721#1 783907721#2 782714971#0 782714971#1 782714971#2 782714971#3 782714971#4 -40009020#7 -40009020#6 -40009020#5 -40009020#4 -40009020#3 -40009020#0 4877791"/>
    <route id="4935286#0_to_-5029408" edges="4935286#0 4935286#1 4935286#2 4935286#3 131942152 880140407 25970859#0 25970859#1 502325084#0 502325084#1 502325084#3 782714966#0 782714966#1 -311298685 7924755 -5029409#1 -5029408"/>
    <route id="4935286#0_to_-28468732#0" edges="4935286#0 4935286#1 4935286#2 4935286#3 131942152 880140407 25970859#0 25970859#1 4894992#0 -4970256#7 -4970256#6 -4970256#5 -28468732#1 -28468732#0"/>
    <route id="4935286#0_to_24337240#4" edges="4935286#0 4935286#1 4935286#2 4935286#3 131942152 535519490#0 535519490#1 311298665 58621262#0 58621262#1 880137009#0 880137009#1 783907721#0 783907721#1 783907721#2 782714971#0 782714971#1 782714971#2 782714971#3 782714971#4 111681903#0 111681903#1 111681903#2 111681903#3 120682114#1 120682114#2 120682114#3 24337240#0 24337240#1 24337240#2 24337240#3 24337240#4"/>
    <route id="4935286#0_to_120682116#6" edges="4935286#0 4935286#1 4935286#2 4935286#3 131942152 535519490#0 535519490#1 311298665 58621262#0 58621262#1 880137009#0 880137009#1 783907721#0 783907721#1 783907721#2 782714971#0 782714971#1 782714971#2 782714971#3 782714971#4 -40009020#7 -40009020#6 -40009020#5 -40009020#4 4877786#0 4877786#1 4877786#2 4877786#3 4877786#4 120682116#4 120682116#5 120682116#6"/>
    <route id="4935286#0_to_5197061#3" edges="4935286#0 4935286#1 4935286#2 4935286#3 131942152 535519490#0 535519490#1 311298665 58621262#0 58621262#1 880137009#0 880137009#1 783907721#0 783907721#1 783907721#2 782714971#0 782714971#1 782714971#2 782714971#3 782714971#4 111681903#0 111681903#1 111681903#2 111681903#3 120682114#1 120682114#2 5197061#0 5197061#1 5197061#2 5197061#3"/>
    <route id="4935286#0_to_-120682116#1" edges="4935286#0 4935286#1 4935286#2 4935286#3 131942152 535519490#0 535519490#1 311298665 58621262#0 58621262#1 880137009#0 880137009#1 783907721#0 783907721#1 783907721#2 782714971#0 782714971#1 782714971#2 782714971#3 782714971#4 111681903#0 111681903#1 111681903#2 111681903#3 -120682116#9 -120682116#7 -120682116#6 -120682116#5 -120682116#4 -120682116#3 -120682116#2 -120682116#1"/>
    <route id="4935286#0_to_5197062#2" edges="4935286#0 4935286#1 4935286#2 4935286#3 131942152 535519490#0 535519490#1 311298665 58621262#0 58621262#1 880137009#0 880137009#1 783907721#0 783907721#1 783907721#2 782714971#0 782714971#1 782714971#2 782714971#3 782714971#4 111681903#0 111681903#1 111681903#2 111681903#3 120682114#1 120682114#2 5197061#0 5197061#1 5197061#2 5197062#0 5197062#1 5197062#2"/>
    <route id="4935286#0_to_8050332" edges="4935286#0 4935286#1 4935286#2 4935286#3 131942152 535519490#0 535519490#1 311298665 58621262#0 58621262#1 880137009#0 880137009#1 783907721#0 783907721#1 783907721#2 782714971#0 782714971#1 782714971#2 782714971#3 782714971#4 111681903#0 111681903#1 111681903#2 111681903#3 120682114#1 120682114#2 5197061#0 5197061#1 -5197064#3 8050332"/>
    <route id="4935286#0_to_-5197061#1" edges="4935286#0 4935286#1 4935286#2 4935286#3 131942152 535519490#0 535519490#1 311298665 58621262#0 58621262#1 880137009#0 880137009#1 783907721#0 783907721#1 783907721#2 782714971#0 782714971#1 782714971#2 782714971#3 782714971#4 498033359#0 498033359#1 498033359#2 498033359#3 498033359#4 40009021#0 40009021#1 5197064#0 5197064#1 5197064#2 5197064#3 -5197061#1"/>
    <route id="4935286#0_to_-5197064#0" edges="4935286#0 4935286#1 4935286#2 4935286#3 131942152 535519490#0 535519490#1 311298665 58621262#0 58621262#1 880137009#0 880137009#1 783907721#0 783907721#1 783907721#2 782714971#0 782714971#1 782714971#2 782714971#3 782714971#4 111681903#0 111681903#1 111681903#2 111681903#3 120682114#1 120682114#2 5197061#0 5197061#1 -5197064#3 -5197064#2 -5197064#1 -5197064#0"/>